<?xml version="1.0"?>
<VTKFile type="UnstructuredGrid" version="0.1" byte_order="LittleEndian">
  <UnstructuredGrid>
    <Piece NumberOfPoints="8321" NumberOfCells="4096">
      <Points>
        <DataArray type="Float64" Name="Coordinates" NumberOfComponents="3" format="ascii">
        0 0 0 0.0625 0 0 0.03125 0.03125 0 0.03125 0 0 
        0.046875 0.015625 0 0.015625 0.015625 0 0.125 0 0 0.09375 0.03125 0 
        0.09375 0 0 0.109375 0.015625 0 0.078125 0.015625 0 0.0625 0.0625 0 
        0.078125 0.046875 0 0.046875 0.046875 0 0.0625 0.03125 0 0.1875 0 0 
        0.15625 0.03125 0 0.15625 0 0 0.171875 0.015625 0 0.140625 0.015625 0 
        0.25 0 0 0.21875 0.03125 0 0.21875 0 0 0.234375 0.015625 0 
        0.203125 0.015625 0 0.1875 0.0625 0 0.203125 0.046875 0 0.171875 0.046875 0 
        0.1875 0.03125 0 0.15625 0.09375 0 0.125 0.0625 0 0.171875 0.078125 0 
        0.140625 0.078125 0 0.15625 0.0625 0 0.125 0.125 0 0.09375 0.09375 0 
        0.140625 0.109375 0 0.109375 0.109375 0 0.125 0.09375 0 0.078125 0.078125 0 
        0.09375 0.0625 0 0.109375 0.078125 0 0.125 0.03125 0 0.140625 0.046875 0 
        0.109375 0.046875 0 0.3125 0 0 0.28125 0.03125 0 0.28125 0 0 
        0.296875 0.015625 0 0.265625 0.015625 0 0.375 0 0 0.34375 0.03125 0 
        0.34375 0 0 0.359375 0.015625 0 0.328125 0.015625 0 0.3125 0.0625 0 
        0.328125 0.046875 0 0.296875 0.046875 0 0.3125 0.03125 0 0.4375 0 0 
        0.40625 0.03125 0 0.40625 0 0 0.421875 0.015625 0 0.390625 0.015625 0 
        0.5 0 0 0.46875 0.03125 0 0.46875 0 0 0.484375 0.015625 0 
        0.453125 0.015625 0 0.4375 0.0625 0 0.453125 0.046875 0 0.421875 0.046875 0 
        0.4375 0.03125 0 0.40625 0.09375 0 0.375 0.0625 0 0.421875 0.078125 0 
        0.390625 0.078125 0 0.40625 0.0625 0 0.375 0.125 0 0.34375 0.09375 0 
        0.390625 0.109375 0 0.359375 0.109375 0 0.375 0.09375 0 0.328125 0.078125 0 
        0.34375 0.0625 0 0.359375 0.078125 0 0.375 0.03125 0 0.390625 0.046875 0 
        0.359375 0.046875 0 0.34375 0.15625 0 0.3125 0.125 0 0.359375 0.140625 0 
        0.328125 0.140625 0 0.34375 0.125 0 0.3125 0.1875 0 0.28125 0.15625 0 
        0.328125 0.171875 0 0.296875 0.171875 0 0.3125 0.15625 0 0.25 0.125 0 
        0.265625 0.140625 0 0.28125 0.125 0 0.296875 0.140625 0 0.28125 0.21875 0 
        0.25 0.1875 0 0.296875 0.203125 0 0.265625 0.203125 0 0.28125 0.1875 0 
        0.25 0.25 0 0.21875 0.21875 0 0.265625 0.234375 0 0.234375 0.234375 0 
        0.25 0.21875 0 0.1875 0.1875 0 0.203125 0.203125 0 0.21875 0.1875 0 
        0.234375 0.203125 0 0.15625 0.15625 0 0.21875 0.15625 0 0.171875 0.171875 0 
        0.1875 0.15625 0 0.203125 0.171875 0 0.1875 0.125 0 0.140625 0.140625 0 
        0.15625 0.125 0 0.171875 0.140625 0 0.21875 0.125 0 0.234375 0.140625 0 
        0.203125 0.140625 0 0.265625 0.171875 0 0.234375 0.171875 0 0.25 0.15625 0 
        0.25 0.03125 0 0.25 0.0625 0 0.28125 0.0625 0 0.265625 0.046875 0 
        0.21875 0.0625 0 0.234375 0.046875 0 0.28125 0.09375 0 0.3125 0.09375 0 
        0.296875 0.078125 0 0.328125 0.109375 0 0.265625 0.109375 0 0.296875 0.109375 0 
        0.21875 0.09375 0 0.203125 0.109375 0 0.234375 0.109375 0 0.171875 0.109375 0 
        0.203125 0.078125 0 0.1875 0.09375 0 0.265625 0.078125 0 0.25 0.09375 0 
        0.234375 0.078125 0 0.5625 0 0 0.53125 0.03125 0 0.53125 0 0 
        0.546875 0.015625 0 0.515625 0.015625 0 0.625 0 0 0.59375 0.03125 0 
        0.59375 0 0 0.609375 0.015625 0 0.578125 0.015625 0 0.5625 0.0625 0 
        0.578125 0.046875 0 0.546875 0.046875 0 0.5625 0.03125 0 0.6875 0 0 
        0.65625 0.03125 0 0.65625 0 0 0.671875 0.015625 0 0.640625 0.015625 0 
        0.75 0 0 0.71875 0.03125 0 0.71875 0 0 0.734375 0.015625 0 
        0.703125 0.015625 0 0.6875 0.0625 0 0.703125 0.046875 0 0.671875 0.046875 0 
        0.6875 0.03125 0 0.65625 0.09375 0 0.625 0.0625 0 0.671875 0.078125 0 
        0.640625 0.078125 0 0.65625 0.0625 0 0.625 0.125 0 0.59375 0.09375 0 
        0.640625 0.109375 0 0.609375 0.109375 0 0.625 0.09375 0 0.578125 0.078125 0 
        0.59375 0.0625 0 0.609375 0.078125 0 0.625 0.03125 0 0.640625 0.046875 0 
        0.609375 0.046875 0 0.8125 0 0 0.78125 0.03125 0 0.78125 0 0 
        0.796875 0.015625 0 0.765625 0.015625 0 0.875 0 0 0.84375 0.03125 0 
        0.84375 0 0 0.859375 0.015625 0 0.828125 0.015625 0 0.8125 0.0625 0 
        0.828125 0.046875 0 0.796875 0.046875 0 0.8125 0.03125 0 0.9375 0 0 
        0.90625 0.03125 0 0.90625 0 0 0.921875 0.015625 0 0.890625 0.015625 0 
        1 0 0 0.96875 0.03125 0 0.96875 0 0 0.984375 0.015625 0 
        0.953125 0.015625 0 0.9375 0.0625 0 0.953125 0.046875 0 0.921875 0.046875 0 
        0.9375 0.03125 0 0.90625 0.09375 0 0.875 0.0625 0 0.921875 0.078125 0 
        0.890625 0.078125 0 0.90625 0.0625 0 0.875 0.125 0 0.84375 0.09375 0 
        0.890625 0.109375 0 0.859375 0.109375 0 0.875 0.09375 0 0.828125 0.078125 0 
        0.84375 0.0625 0 0.859375 0.078125 0 0.875 0.03125 0 0.890625 0.046875 0 
        0.859375 0.046875 0 0.84375 0.15625 0 0.8125 0.125 0 0.859375 0.140625 0 
        0.828125 0.140625 0 0.84375 0.125 0 0.8125 0.1875 0 0.78125 0.15625 0 
        0.828125 0.171875 0 0.796875 0.171875 0 0.8125 0.15625 0 0.75 0.125 0 
        0.765625 0.140625 0 0.78125 0.125 0 0.796875 0.140625 0 0.78125 0.21875 0 
        0.75 0.1875 0 0.796875 0.203125 0 0.765625 0.203125 0 0.78125 0.1875 0 
        0.75 0.25 0 0.71875 0.21875 0 0.765625 0.234375 0 0.734375 0.234375 0 
        0.75 0.21875 0 0.6875 0.1875 0 0.703125 0.203125 0 0.71875 0.1875 0 
        0.734375 0.203125 0 0.65625 0.15625 0 0.71875 0.15625 0 0.671875 0.171875 0 
        0.6875 0.15625 0 0.703125 0.171875 0 0.6875 0.125 0 0.640625 0.140625 0 
        0.65625 0.125 0 0.671875 0.140625 0 0.71875 0.125 0 0.734375 0.140625 0 
        0.703125 0.140625 0 0.765625 0.171875 0 0.734375 0.171875 0 0.75 0.15625 0 
        0.75 0.03125 0 0.75 0.0625 0 0.78125 0.0625 0 0.765625 0.046875 0 
        0.71875 0.0625 0 0.734375 0.046875 0 0.78125 0.09375 0 0.8125 0.09375 0 
        0.796875 0.078125 0 0.828125 0.109375 0 0.765625 0.109375 0 0.796875 0.109375 0 
        0.71875 0.09375 0 0.703125 0.109375 0 0.734375 0.109375 0 0.671875 0.109375 0 
        0.703125 0.078125 0 0.6875 0.09375 0 0.765625 0.078125 0 0.75 0.09375 0 
        0.734375 0.078125 0 0.71875 0.28125 0 0.6875 0.25 0 0.734375 0.265625 0 
        0.703125 0.265625 0 0.71875 0.25 0 0.6875 0.3125 0 0.65625 0.28125 0 
        0.703125 0.296875 0 0.671875 0.296875 0 0.6875 0.28125 0 0.625 0.25 0 
        0.640625 0.265625 0 0.65625 0.25 0 0.671875 0.265625 0 0.65625 0.34375 0 
        0.625 0.3125 0 0.671875 0.328125 0 0.640625 0.328125 0 0.65625 0.3125 0 
        0.625 0.375 0 0.59375 0.34375 0 0.640625 0.359375 0 0.609375 0.359375 0 
        0.625 0.34375 0 0.5625 0.3125 0 0.578125 0.328125 0 0.59375 0.3125 0 
        0.609375 0.328125 0 0.53125 0.28125 0 0.59375 0.28125 0 0.546875 0.296875 0 
        0.5625 0.28125 0 0.578125 0.296875 0 0.5 0.25 0 0.5625 0.25 0 
        0.515625 0.265625 0 0.53125 0.25 0 0.546875 0.265625 0 0.59375 0.25 0 
        0.609375 0.265625 0 0.578125 0.265625 0 0.640625 0.296875 0 0.609375 0.296875 0 
        0.625 0.28125 0 0.59375 0.40625 0 0.5625 0.375 0 0.609375 0.390625 0 
        0.578125 0.390625 0 0.59375 0.375 0 0.5625 0.4375 0 0.53125 0.40625 0 
        0.578125 0.421875 0 0.546875 0.421875 0 0.5625 0.40625 0 0.5 0.375 0 
        0.515625 0.390625 0 0.53125 0.375 0 0.546875 0.390625 0 0.53125 0.46875 0 
        0.5 0.4375 0 0.546875 0.453125 0 0.515625 0.453125 0 0.53125 0.4375 0 
        0.5 0.5 0 0.46875 0.46875 0 0.515625 0.484375 0 0.484375 0.484375 0 
        0.5 0.46875 0 0.4375 0.4375 0 0.453125 0.453125 0 0.46875 0.4375 0 
        0.484375 0.453125 0 0.40625 0.40625 0 0.46875 0.40625 0 0.421875 0.421875 0 
        0.4375 0.40625 0 0.453125 0.421875 0 0.375 0.375 0 0.4375 0.375 0 
        0.390625 0.390625 0 0.40625 0.375 0 0.421875 0.390625 0 0.46875 0.375 0 
        0.484375 0.390625 0 0.453125 0.390625 0 0.515625 0.421875 0 0.484375 0.421875 0 
        0.5 0.40625 0 0.34375 0.34375 0 0.40625 0.34375 0 0.359375 0.359375 0 
        0.375 0.34375 0 0.390625 0.359375 0 0.3125 0.3125 0 0.375 0.3125 0 
        0.328125 0.328125 0 0.34375 0.3125 0 0.359375 0.328125 0 0.4375 0.3125 0 
        0.40625 0.3125 0 0.421875 0.328125 0 0.390625 0.328125 0 0.28125 0.28125 0 
        0.34375 0.28125 0 0.296875 0.296875 0 0.3125 0.28125 0 0.328125 0.296875 0 
        0.3125 0.25 0 0.265625 0.265625 0 0.28125 0.25 0 0.296875 0.265625 0 
        0.375 0.25 0 0.34375 0.25 0 0.359375 0.265625 0 0.328125 0.265625 0 
        0.4375 0.25 0 0.40625 0.28125 0 0.40625 0.25 0 0.421875 0.265625 0 
        0.390625 0.265625 0 0.46875 0.28125 0 0.46875 0.25 0 0.484375 0.265625 0 
        0.453125 0.265625 0 0.453125 0.296875 0 0.421875 0.296875 0 0.4375 0.28125 0 
        0.359375 0.296875 0 0.375 0.28125 0 0.390625 0.296875 0 0.578125 0.359375 0 
        0.53125 0.34375 0 0.515625 0.359375 0 0.546875 0.359375 0 0.546875 0.328125 0 
        0.5625 0.34375 0 0.46875 0.34375 0 0.453125 0.359375 0 0.484375 0.359375 0 
        0.421875 0.359375 0 0.453125 0.328125 0 0.4375 0.34375 0 0.5 0.3125 0 
        0.484375 0.296875 0 0.46875 0.3125 0 0.5 0.28125 0 0.53125 0.3125 0 
        0.515625 0.296875 0 0.5 0.34375 0 0.484375 0.328125 0 0.515625 0.328125 0 
        0.5 0.03125 0 0.5 0.0625 0 0.53125 0.0625 0 0.515625 0.046875 0 
        0.46875 0.0625 0 0.484375 0.046875 0 0.53125 0.09375 0 0.5625 0.09375 0 
        0.546875 0.078125 0 0.5625 0.125 0 0.59375 0.125 0 0.578125 0.109375 0 
        0.5 0.125 0 0.53125 0.125 0 0.515625 0.109375 0 0.546875 0.109375 0 
        0.4375 0.125 0 0.46875 0.09375 0 0.46875 0.125 0 0.453125 0.109375 0 
        0.484375 0.109375 0 0.40625 0.125 0 0.421875 0.109375 0 0.453125 0.078125 0 
        0.4375 0.09375 0 0.515625 0.078125 0 0.5 0.09375 0 0.484375 0.078125 0 
        0.59375 0.15625 0 0.625 0.15625 0 0.609375 0.140625 0 0.625 0.1875 0 
[...]
      <PointData Scalars="u">
        <DataArray type="Float64" Name="u" NumberOfComponents="1" format="ascii">
        -7.786087e-10 -0.04838658 -0.02430134 -0.02430172 -0.03638491 -0.01216401 -0.09502667 -0.07203506 -0.07203506 -0.08362671 -0.06027916 -0.04838622 
        -0.06027915 -0.03638455 -0.04838658 -0.1381698 -0.1171429 -0.1171429 -0.1278056 -0.1062077 -0.17614 -0.157901 -0.157901 -0.1672188 
        -0.1482099 -0.1381698 -0.1482099 -0.1278056 -0.1381698 -0.1171429 -0.09502667 -0.1278056 -0.1062077 -0.1171429 -0.09502632 -0.0720347 
        -0.1062077 -0.08362636 -0.09502667 -0.0602788 -0.07203505 -0.0836267 -0.09502667 -0.1062077 -0.08362671 -0.2074219 -0.1927031 -0.1927031 
        -0.2003029 -0.184642 -0.2307414 -0.2201452 -0.2201452 -0.2257166 -0.2140417 -0.2074219 -0.2140417 -0.2003029 -0.2074219 -0.2451344 
        -0.2391002 -0.2391002 -0.2424124 -0.2352065 -0.25 -0.2487804 -0.2487804 -0.2496949 -0.2472589 -0.2451344 -0.2472589 -0.2424124 
        -0.2451344 -0.2391002 -0.2307414 -0.2424124 -0.2352065 -0.2391002 -0.2307414 -0.2201452 -0.2352065 -0.2257166 -0.2307414 -0.2140417 
        -0.2201452 -0.2257166 -0.2307414 -0.2352065 -0.2257166 -0.2201452 -0.2074219 -0.2257166 -0.2140417 -0.2201452 -0.2074219 -0.1927031 
        -0.2140417 -0.2003029 -0.2074219 -0.17614 -0.184642 -0.1927031 -0.2003029 -0.1927031 -0.17614 -0.2003029 -0.184642 -0.1927031 
        -0.1761397 -0.1579007 -0.184642 -0.1672185 -0.17614 -0.1381695 -0.1482096 -0.157901 -0.1672188 -0.1171425 -0.157901 -0.1278053 
        -0.1381698 -0.1482099 -0.1381698 -0.1062074 -0.1171429 -0.1278056 -0.157901 -0.1672188 -0.1482099 -0.184642 -0.1672188 -0.17614 
        -0.17614 -0.17614 -0.1927031 -0.184642 -0.157901 -0.1672188 -0.1927031 -0.2074219 -0.2003029 -0.2140417 -0.184642 -0.2003029 
        -0.157901 -0.1482099 -0.1672188 -0.1278056 -0.1482099 -0.1381698 -0.184642 -0.17614 -0.1672188 -0.2451344 -0.2487804 -0.2487804 
        -0.2472589 -0.2496949 -0.2307414 -0.2391002 -0.2391002 -0.2352065 -0.2424124 -0.2451344 -0.2424124 -0.2472589 -0.2451344 -0.2074219 
        -0.2201452 -0.2201452 -0.2140417 -0.2257166 -0.17614 -0.1927031 -0.1927031 -0.184642 -0.2003029 -0.2074219 -0.2003029 -0.2140417 
        -0.2074219 -0.2201452 -0.2307414 -0.2140417 -0.2257166 -0.2201452 -0.2307414 -0.2391002 -0.2257166 -0.2352065 -0.2307414 -0.2424124 
        -0.2391002 -0.2352065 -0.2307414 -0.2257166 -0.2352065 -0.1381698 -0.157901 -0.157901 -0.1482099 -0.1672188 -0.09502667 -0.1171429 
        -0.1171429 -0.1062077 -0.1278056 -0.1381698 -0.1278056 -0.1482099 -0.1381698 -0.04838658 -0.07203506 -0.07203506 -0.06027916 -0.08362671 
        -7.786087e-10 -0.02430134 -0.02430172 -0.01216401 -0.03638491 -0.04838622 -0.03638455 -0.06027915 -0.04838658 -0.0720347 -0.09502667 -0.0602788 
        -0.0836267 -0.07203505 -0.09502632 -0.1171429 -0.08362636 -0.1062077 -0.09502667 -0.1278056 -0.1171429 -0.1062077 -0.09502667 -0.08362671 
        -0.1062077 -0.1171425 -0.1381698 -0.1062074 -0.1278056 -0.1171429 -0.1381695 -0.157901 -0.1278053 -0.1482099 -0.1381698 -0.17614 
        -0.1672188 -0.157901 -0.1482099 -0.1579007 -0.17614 -0.1482096 -0.1672188 -0.157901 -0.1761397 -0.1927031 -0.1672185 -0.184642 
        -0.17614 -0.2074219 -0.2003029 -0.1927031 -0.184642 -0.2201452 -0.1927031 -0.2140417 -0.2074219 -0.2003029 -0.2074219 -0.2257166 
        -0.2201452 -0.2140417 -0.1927031 -0.184642 -0.2003029 -0.1672188 -0.184642 -0.17614 -0.17614 -0.17614 -0.157901 -0.1672188 
        -0.1927031 -0.184642 -0.157901 -0.1381698 -0.1482099 -0.1278056 -0.1672188 -0.1482099 -0.1927031 -0.2003029 -0.184642 -0.2140417 
        -0.2003029 -0.2074219 -0.1672188 -0.17614 -0.184642 -0.1927029 -0.2074219 -0.1846417 -0.2003029 -0.1927031 -0.2074217 -0.2201452 
        -0.2003027 -0.2140417 -0.2074219 -0.2307414 -0.2257166 -0.2201452 -0.2140417 -0.220145 -0.2307414 -0.2140415 -0.2257166 -0.2201452 
        -0.2307412 -0.2391002 -0.2257164 -0.2352065 -0.2307414 -0.2451344 -0.2424124 -0.2391002 -0.2352065 -0.2487804 -0.2391002 -0.2472589 
        -0.2451344 -0.2424124 -0.25 -0.2451344 -0.2496949 -0.2487804 -0.2472589 -0.2391002 -0.2352065 -0.2424124 -0.2257166 -0.2352065 
        -0.2307414 -0.2391001 -0.2451343 -0.2352063 -0.2424124 -0.2391002 -0.2451343 -0.2487804 -0.2424123 -0.2472589 -0.2451343 -0.25 
        -0.2496949 -0.2487804 -0.2472589 -0.2487803 -0.25 -0.2472588 -0.2496949 -0.2487804 -0.25 -0.2487803 -0.2496949 -0.2496949 
        -0.25 -0.2451343 -0.2472588 -0.2487804 -0.2496949 -0.2391001 -0.2487804 -0.2424123 -0.2451343 -0.2472589 -0.2307412 -0.2451343 
        -0.2352063 -0.2391002 -0.2424124 -0.2487804 -0.2496949 -0.2472589 -0.2496949 -0.2496949 -0.25 -0.220145 -0.2391002 -0.2257164 
        -0.2307414 -0.2352065 -0.2074217 -0.2307414 -0.2140415 -0.2201452 -0.2257166 -0.2451344 -0.2391002 -0.2424124 -0.2352065 -0.1927029 
        -0.2201452 -0.2003027 -0.2074219 -0.2140417 -0.2074219 -0.1846417 -0.1927031 -0.2003029 -0.2307414 -0.2201452 -0.2257166 -0.2140417 
        -0.2451344 -0.2391002 -0.2391002 -0.2424124 -0.2352065 -0.2487804 -0.2487804 -0.2496949 -0.2472589 -0.2472589 -0.2424124 -0.2451344 
        -0.2257166 -0.2307414 -0.2352065 -0.2424124 -0.2487804 -0.2496949 -0.2472589 -0.2472589 -0.2451343 -0.2487804 -0.2472589 -0.2496949 
        -0.2424124 -0.2472589 -0.2451343 -0.25 -0.2496949 -0.2487804 -0.25 -0.2487804 -0.2496949 -0.25 -0.2496949 -0.2496949 
        -0.25 -0.25 -0.2487804 -0.2496949 -0.2487804 -0.2496949 -0.2487804 -0.2451344 -0.2472589 -0.2451344 -0.2391002 -0.2424124 
        -0.25 -0.2487804 -0.2496949 -0.2472589 -0.2451344 -0.2487804 -0.2487804 -0.2472589 -0.2496949 -0.2391002 -0.2424124 -0.2472589 
        -0.2451344 -0.2496949 -0.25 -0.2496949 -0.2391002 -0.2307414 -0.2352065 -0.2307414 -0.2201452 -0.2257166 -0.2451344 -0.2391002 
        -0.2424124 -0.2352065 -0.2201452 -0.2074219 -0.2140417 -0.2003029 -0.2257166 -0.2140417 -0.2391002 -0.2424124 -0.2352065 -0.2487804 
        -0.2496949 -0.2472589 -0.2472589 -0.2424124 -0.2451344 -0.2257166 -0.2307414 -0.2352065 -0.2487804 -0.2472589 -0.2496949 -0.2391002 
        -0.2352065 -0.2424124 -0.2451344 -0.2424124 -0.2472589 -0.2451344 -0.2201452 -0.2140417 -0.2257166 -0.2003029 -0.2140417 -0.2074219 
        -0.2307414 -0.2257166 -0.2201452 -0.2391002 -0.2352065 -0.2307414 -0.2424124 -0.2391002 -0.2352065 -0.2307414 -0.2257166 -0.2352065 
        -0.2424124 -0.2487804 -0.2472589 -0.2451344 -0.2496949 -0.2472589 -0.25 -0.2496949 -0.2487804 -0.25 -0.2487804 -0.2496949 
        -0.2487804 -0.2451344 -0.2472589 -0.2424124 -0.2496949 -0.2472589 -0.2496949 -0.2496949 -0.25 -7.787253e-10 -7.78705e-10 -0.0121643 
        -7.787291e-10 -0.02430165 -7.787286e-10 -0.01216429 -0.0121643 -0.03638488 -0.02430166 -7.787292e-10 -0.02430165 -7.787292e-10 -0.01216429 -0.01216429 
        -7.787291e-10 -0.02430165 -7.787291e-10 -0.01216429 -0.01216429 -0.04838655 -0.03638487 -0.03638487 -0.02430165 -0.07203504 -0.04838655 -0.06027914 
        -0.06027914 -0.04838655 -0.08362669 -0.07203504 -0.04838656 -0.06027914 -0.02430165 -0.03638487 -0.03638488 -7.787291e-10 -0.02430165 -7.787291e-10 
        -0.01216429 -0.01216429 -7.787291e-10 -0.02430165 -7.787291e-10 -0.01216429 -0.01216429 -0.04838655 -0.03638487 -0.03638487 -0.02430165 -7.787291e-10 
        -0.02430165 -7.787291e-10 -0.01216429 -0.01216429 -7.787291e-10 -0.02430165 -7.787291e-10 -0.01216429 -0.01216429 -0.04838655 -0.03638487 -0.03638487 
        -0.02430165 -0.07203503 -0.04838655 -0.06027913 -0.06027913 -0.04838655 -0.09502665 -0.07203503 -0.08362669 -0.08362669 -0.07203503 -0.06027913 
        -0.04838655 -0.06027913 -0.02430165 -0.03638487 -0.03638487 -0.1171429 -0.09502665 -0.1062077 -0.1062077 -0.09502665 -0.1381698 -0.1171429 
        -0.1278056 -0.1278056 -0.1171429 -0.09502665 -0.1062077 -0.09502665 -0.1062077 -0.1579009 -0.1381698 -0.1482099 -0.1482099 -0.1381698 
        -0.1672188 -0.157901 -0.1381698 -0.1482099 -0.1171429 -0.1171429 -0.1278056 -0.09502666 -0.09502666 -0.1062077 -0.09502665 -0.1062077 
        -0.1062077 -0.1278056 -0.1278056 -0.1171429 -0.02430165 -0.04838655 -0.04838655 -0.03638487 -0.04838655 -0.03638487 -0.07203503 -0.07203503 
        -0.06027913 -0.08362669 -0.08362669 -0.08362669 -0.07203504 -0.08362669 -0.08362669 -0.08362669 -0.06027914 -0.07203504 -0.06027913 -0.07203504 
        -0.06027914 -7.787291e-10 -0.02430165 -7.787291e-10 -0.01216429 -0.01216429 -7.787291e-10 -0.02430165 -7.787291e-10 -0.01216429 -0.01216429 -0.04838655 
        -0.03638487 -0.03638487 -0.02430165 -7.787291e-10 -0.02430165 -7.787291e-10 -0.01216429 -0.01216429 -7.787291e-10 -0.02430165 -7.787291e-10 -0.01216429 
        -0.01216429 -0.04838655 -0.03638487 -0.03638487 -0.02430165 -0.07203503 -0.04838655 -0.06027913 -0.06027913 -0.04838655 -0.09502665 -0.07203503 
        -0.08362669 -0.08362669 -0.07203503 -0.06027913 -0.04838655 -0.06027913 -0.02430165 -0.03638487 -0.03638487 -7.787292e-10 -0.02430165 -7.787291e-10 
        -0.01216429 -0.01216429 -7.787291e-10 -0.02430165 -7.787292e-10 -0.01216429 -0.01216429 -0.04838655 -0.03638487 -0.03638487 -0.02430165 -7.787253e-10 
        -0.02430165 -7.787286e-10 -0.0121643 -0.01216429 -7.786087e-10 -0.02430134 -7.78705e-10 -0.01216401 -0.0121643 -0.04838622 -0.03638455 -0.03638488 
        -0.02430166 -0.0720347 -0.04838655 -0.0602788 -0.06027914 -0.04838656 -0.09502632 -0.07203504 -0.08362636 -0.08362669 -0.07203504 -0.06027914 
        -0.04838655 -0.06027914 -0.02430165 -0.03638488 -0.03638487 -0.1171425 -0.09502666 -0.1062074 -0.1062077 -0.09502666 -0.1381695 -0.1171429 
        -0.1278053 -0.1278056 -0.1171429 -0.09502665 -0.1062077 -0.09502665 -0.1062077 -0.1579007 -0.1381698 -0.1482096 -0.1482099 -0.1381698 
        -0.1761397 -0.1579009 -0.1672185 -0.1672188 -0.157901 -0.1381698 -0.1482099 -0.1381698 -0.1482099 -0.1171429 -0.1171429 -0.1278056 
        -0.1171429 -0.1278056 -0.09502665 -0.1062077 -0.09502665 -0.1062077 -0.09502665 -0.1062077 -0.1062077 -0.1278056 -0.1278056 -0.1171429 
        -0.02430165 -0.04838655 -0.04838655 -0.03638487 -0.04838655 -0.03638487 -0.07203504 -0.07203504 -0.06027914 -0.08362669 -0.08362669 -0.08362669 
        -0.07203503 -0.08362669 -0.08362669 -0.08362669 -0.06027913 -0.07203503 -0.06027914 -0.07203504 -0.06027913 -0.1927029 -0.17614 -0.1846417 
        -0.1846419 -0.17614 -0.2074217 -0.1927031 -0.2003027 -0.2003029 -0.1927031 -0.17614 -0.1846419 -0.17614 -0.1846419 -0.220145 
        -0.2074219 -0.2140415 -0.2140417 -0.2074219 -0.2307412 -0.2201452 -0.2257164 -0.2257166 -0.2201452 -0.2074219 -0.2140417 -0.2074219 
        -0.2140417 -0.1927031 -0.1927031 -0.2003029 -0.1927031 -0.2003029 -0.17614 -0.17614 -0.1846419 -0.17614 -0.1846419 -0.17614 
        -0.1846419 -0.1846419 -0.2003029 -0.2003029 -0.1927031 -0.2391001 -0.2307414 -0.2352063 -0.2352065 -0.2307414 -0.2451343 -0.2391002 
        -0.2424123 -0.2424124 -0.2391002 -0.2307414 -0.2352065 -0.2307414 -0.2352065 -0.2487803 -0.2451343 -0.2472588 -0.2472588 -0.2451343 
        -0.2496949 -0.2487804 -0.2451343 -0.2472588 -0.2391002 -0.2391002 -0.2424124 -0.2307414 -0.2307414 -0.2352065 -0.2307414 -0.2352065 
        -0.2352065 -0.2424124 -0.2424124 -0.2391002 -0.2201452 -0.2201452 -0.2257166 -0.2074219 -0.2074219 -0.2140417 -0.2074219 -0.2074219 
        -0.2140417 -0.2140417 -0.1927031 -0.1927031 -0.2003029 -0.17614 -0.17614 -0.1846419 -0.17614 -0.17614 -0.1846419 -0.1846419 
        -0.17614 -0.1927031 -0.17614 -0.1846419 -0.1846419 -0.1927031 -0.17614 -0.1846419 -0.1846419 -0.2003029 -0.2003029 -0.1927031 
        -0.2003029 -0.1927031 -0.2003029 -0.2257166 -0.2201452 -0.2257166 -0.2257166 -0.2140417 -0.2201452 -0.2201452 -0.2257166 -0.2257166 
        -0.2257166 -0.2140417 -0.2201452 -0.2074219 -0.2003029 -0.2074219 -0.1927031 -0.2074219 -0.2003029 -0.2201452 -0.2140417 -0.2140417 
        -0.02430165 -0.04838655 -0.04838655 -0.03638487 -0.04838655 -0.03638487 -0.07203503 -0.07203503 -0.06027913 -0.09502665 -0.09502665 -0.08362669 
        -0.09502665 -0.09502665 -0.08362669 -0.08362669 -0.09502665 -0.07203503 -0.09502665 -0.08362669 -0.08362669 -0.09502665 -0.08362669 -0.06027913 
        -0.07203503 -0.06027913 -0.07203503 -0.06027913 -0.1171429 -0.1171429 -0.1062077 -0.1381698 -0.1381698 -0.1278056 -0.1381698 -0.1381698 
        -0.1278056 -0.1278056 -0.1579009 -0.1579009 -0.1482099 -0.1672188 -0.1672188 -0.1672188 -0.1579009 -0.1672188 -0.1672188 -0.1579009 
        -0.1672188 -0.1672188 -0.1482099 -0.1482099 -0.1579009 -0.1482099 -0.1579009 -0.1482099 -0.1579009 -0.1672188 -0.1672188 -0.1579009 
        -0.1672188 -0.1672188 -0.1381698 -0.1482099 -0.1482099 -0.1579009 -0.1579009 -0.1672188 -0.1672188 -0.1672188 -0.1482099 -0.1579009 
        -0.1381698 -0.1278056 -0.1381698 -0.1171429 -0.1062077 -0.1171429 -0.1278056 -0.1381698 -0.1278056 -0.1579009 -0.1482099 -0.1482099 
        -0.1062077 -0.1171429 -0.1278056 -0.1171429 -0.1062077 -0.1062077 -0.1381698 -0.1482099 -0.1381698 -0.1579009 -0.1381698 -0.1482099 
        -0.1171429 -0.1171429 -0.1278056 -0.1062077 -0.1062077 -0.1062077 -0.1278056 -0.1278056 -0.1171429 -0.04838658 -0.02430172 -0.03638491 
        -0.09502667 -0.07203506 -0.07203506 -0.08362671 -0.06027916 -0.06027915 -0.04838658 -0.1381698 -0.1171429 -0.1171429 -0.1278056 -0.1062077 
        -0.17614 -0.157901 -0.157901 -0.1672188 -0.1482099 -0.1381698 -0.1482099 -0.1278056 -0.1381698 -0.1171429 -0.09502667 -0.1278056 
        -0.1062077 -0.1171429 -0.1062077 -0.09502667 -0.07203505 -0.0836267 -0.09502667 -0.1062077 -0.08362671 -0.2074219 -0.1927031 -0.1927031 
        -0.2003029 -0.184642 -0.2307414 -0.2201452 -0.2201452 -0.2257166 -0.2140417 -0.2074219 -0.2140417 -0.2003029 -0.2074219 -0.2451344 
        -0.2391002 -0.2391002 -0.2424124 -0.2352065 -0.25 -0.2487804 -0.2487804 -0.2496949 -0.2472589 -0.2451344 -0.2472589 -0.2424124 
        -0.2451344 -0.2391002 -0.2307414 -0.2424124 -0.2352065 -0.2391002 -0.2307414 -0.2201452 -0.2352065 -0.2257166 -0.2307414 -0.2140417 
        -0.2201452 -0.2257166 -0.2307414 -0.2352065 -0.2257166 -0.2201452 -0.2074219 -0.2257166 -0.2140417 -0.2201452 -0.2074219 -0.1927031 
        -0.2140417 -0.2003029 -0.2074219 -0.17614 -0.184642 -0.1927031 -0.2003029 -0.1927031 -0.17614 -0.2003029 -0.184642 -0.1927031 
        -0.184642 -0.17614 -0.157901 -0.1672188 -0.157901 -0.1381698 -0.1482099 -0.1381698 -0.1171429 -0.1278056 -0.157901 -0.1672188 
        -0.1482099 -0.184642 -0.1672188 -0.17614 -0.17614 -0.17614 -0.1927031 -0.184642 -0.157901 -0.1672188 -0.1927031 -0.2074219 
        -0.2003029 -0.2140417 -0.184642 -0.2003029 -0.157901 -0.1482099 -0.1672188 -0.1278056 -0.1482099 -0.1381698 -0.184642 -0.17614 
        -0.1672188 -0.2451344 -0.2487804 -0.2487804 -0.2472589 -0.2496949 -0.2307414 -0.2391002 -0.2391002 -0.2352065 -0.2424124 -0.2451344 
        -0.2424124 -0.2472589 -0.2451344 -0.2074219 -0.2201452 -0.2201452 -0.2140417 -0.2257166 -0.17614 -0.1927031 -0.1927031 -0.184642 
        -0.2003029 -0.2074219 -0.2003029 -0.2140417 -0.2074219 -0.2201452 -0.2307414 -0.2140417 -0.2257166 -0.2201452 -0.2307414 -0.2391002 
        -0.2257166 -0.2352065 -0.2307414 -0.2424124 -0.2391002 -0.2352065 -0.2307414 -0.2257166 -0.2352065 -0.1381698 -0.157901 -0.157901 
        -0.1482099 -0.1672188 -0.09502667 -0.1171429 -0.1171429 -0.1062077 -0.1278056 -0.1381698 -0.1278056 -0.1482099 -0.1381698 -0.04838658 
        -0.07203506 -0.07203506 -0.06027916 -0.08362671 -7.786087e-10 -0.02430134 -0.02430172 -0.01216401 -0.03638491 -0.04838622 -0.03638455 -0.06027915 
        -0.04838658 -0.0720347 -0.09502667 -0.0602788 -0.0836267 -0.07203505 -0.09502632 -0.1171429 -0.08362636 -0.1062077 -0.09502667 -0.1278056 
        -0.1171429 -0.1062077 -0.09502667 -0.08362671 -0.1062077 -0.1171425 -0.1381698 -0.1062074 -0.1278056 -0.1171429 -0.1381695 -0.157901 
        -0.1278053 -0.1482099 -0.1381698 -0.17614 -0.1672188 -0.157901 -0.1482099 -0.1579007 -0.17614 -0.1482096 -0.1672188 -0.157901 
        -0.1761397 -0.1927031 -0.1672185 -0.184642 -0.17614 -0.2074219 -0.2003029 -0.1927031 -0.184642 -0.2201452 -0.1927031 -0.2140417 
        -0.2074219 -0.2003029 -0.2074219 -0.2257166 -0.2201452 -0.2140417 -0.1927031 -0.184642 -0.2003029 -0.1672188 -0.184642 -0.17614 
        -0.17614 -0.17614 -0.157901 -0.1672188 -0.1927031 -0.184642 -0.157901 -0.1381698 -0.1482099 -0.1278056 -0.1672188 -0.1482099 
        -0.1927031 -0.2003029 -0.184642 -0.2140417 -0.2003029 -0.2074219 -0.1672188 -0.17614 -0.184642 -0.1927029 -0.2074219 -0.1846417 
        -0.2003029 -0.1927031 -0.2074217 -0.2201452 -0.2003027 -0.2140417 -0.2074219 -0.2307414 -0.2257166 -0.2201452 -0.2140417 -0.220145 
        -0.2307414 -0.2140415 -0.2257166 -0.2201452 -0.2307412 -0.2391002 -0.2257164 -0.2352065 -0.2307414 -0.2451344 -0.2424124 -0.2391002 
        -0.2352065 -0.2487804 -0.2391002 -0.2472589 -0.2451344 -0.2424124 -0.25 -0.2451344 -0.2496949 -0.2487804 -0.2472589 -0.2391002 
        -0.2352065 -0.2424124 -0.2257166 -0.2352065 -0.2307414 -0.2391001 -0.2451343 -0.2352063 -0.2424124 -0.2391002 -0.2451343 -0.2487804 
        -0.2424123 -0.2472589 -0.2451343 -0.25 -0.2496949 -0.2487804 -0.2472589 -0.2487803 -0.25 -0.2472588 -0.2496949 -0.2487804 
        -0.2496949 -0.25 -0.2487804 -0.2496949 -0.2487804 -0.2451343 -0.2472589 -0.2451343 -0.2391002 -0.2424124 -0.2487804 -0.2496949 
        -0.2472589 -0.2496949 -0.2496949 -0.25 -0.2391002 -0.2307414 -0.2352065 -0.2307414 -0.2201452 -0.2257166 -0.2451344 -0.2391002 
        -0.2424124 -0.2352065 -0.2201452 -0.2074219 -0.2140417 -0.2074219 -0.1927031 -0.2003029 -0.2307414 -0.2201452 -0.2257166 -0.2140417 
        -0.2451344 -0.2391002 -0.2391002 -0.2424124 -0.2352065 -0.2487804 -0.2487804 -0.2496949 -0.2472589 -0.2472589 -0.2424124 -0.2451344 
        -0.2257166 -0.2307414 -0.2352065 -0.2424124 -0.2487804 -0.2496949 -0.2472589 -0.2472589 -0.2451343 -0.2487804 -0.2472589 -0.2496949 
        -0.2424124 -0.2472589 -0.2451343 -0.25 -0.2496949 -0.2487804 -0.25 -0.2487804 -0.2496949 -0.25 -0.2496949 -0.2496949 
        -0.25 -0.25 -0.2487804 -0.2496949 -0.2487804 -0.2496949 -0.2487804 -0.2451344 -0.2472589 -0.2451344 -0.2391002 -0.2424124 
        -0.25 -0.2487804 -0.2496949 -0.2472589 -0.2451344 -0.2487804 -0.2487804 -0.2472589 -0.2496949 -0.2391002 -0.2424124 -0.2472589 
        -0.2451344 -0.2496949 -0.25 -0.2496949 -0.2391002 -0.2307414 -0.2352065 -0.2307414 -0.2201452 -0.2257166 -0.2451344 -0.2391002 
        -0.2424124 -0.2352065 -0.2201452 -0.2074219 -0.2140417 -0.2003029 -0.2257166 -0.2140417 -0.2391002 -0.2424124 -0.2352065 -0.2487804 
        -0.2496949 -0.2472589 -0.2472589 -0.2424124 -0.2451344 -0.2257166 -0.2307414 -0.2352065 -0.2487804 -0.2472589 -0.2496949 -0.2391002 
        -0.2352065 -0.2424124 -0.2451344 -0.2424124 -0.2472589 -0.2451344 -0.2201452 -0.2140417 -0.2257166 -0.2003029 -0.2140417 -0.2074219 
        -0.2307414 -0.2257166 -0.2201452 -0.2391002 -0.2352065 -0.2307414 -0.2424124 -0.2391002 -0.2352065 -0.2307414 -0.2257166 -0.2352065 
        -0.2424124 -0.2487804 -0.2472589 -0.2451344 -0.2496949 -0.2472589 -0.25 -0.2496949 -0.2487804 -0.25 -0.2487804 -0.2496949 
        -0.2487804 -0.2451344 -0.2472589 -0.2424124 -0.2496949 -0.2472589 -0.2496949 -0.2496949 -0.25 -7.787253e-10 -7.78705e-10 -0.0121643 
        -7.787291e-10 -0.02430165 -7.787286e-10 -0.01216429 -0.0121643 -0.03638488 -0.02430166 -7.787292e-10 -0.02430165 -7.787292e-10 -0.01216429 -0.01216429 
        -7.787291e-10 -0.02430165 -7.787291e-10 -0.01216429 -0.01216429 -0.04838655 -0.03638487 -0.03638487 -0.02430165 -0.07203504 -0.04838655 -0.06027914 
        -0.06027914 -0.04838655 -0.08362669 -0.07203504 -0.04838656 -0.06027914 -0.02430165 -0.03638487 -0.03638488 -7.787291e-10 -0.02430165 -7.787291e-10 
        -0.01216429 -0.01216429 -7.787291e-10 -0.02430165 -7.787291e-10 -0.01216429 -0.01216429 -0.04838655 -0.03638487 -0.03638487 -0.02430165 -7.787291e-10 